created by fftool

4600 atoms
4400 bonds
5500 angles
7000 dihedrals
26 atom types
22 bond types
20 angle types
18 dihedral types
0.000000 40.000000 xlo xhi
0.000000 40.000000 ylo yhi
0.000000 40.000000 zlo zhi

Masses

   1   13.607  # N4 DC
   2   11.611  # C1 DC
   3    1.008  # H1
   4   11.611  # C1A DC
   5   11.611  # COL DC
   6    1.008  # HC
   7   15.599  # OH DC
   8    1.008  # HO
   9   13.607  # NAL DC
  10    1.008  # HNA
  11   11.611  # CAA DC
  12    1.008  # HAA
  13   11.611  # CBA DC
  14    1.008  # HBA
  15   11.611  # CO2A DC
  16   15.599  # O2A DC
  17    0.400  # N4 DP
  18    0.400  # C1 DP
  19    0.400  # C1A DP
  20    0.400  # COL DP
  21    0.400  # OH DP
  22    0.400  # NAL DP
  23    0.400  # CAA DP
  24    0.400  # CBA DP
  25    0.400  # CO2A DP
  26    0.400  # O2A DP

Bond Coeffs

   1   382.002868     1.448000  # NT-CT
   2   339.985660     1.090000  # HC-CT
   3   267.925430     1.529000  # CT-CT
   4   320.004780     1.410000  # CT-OH
   5   552.999522     0.945000  # HO-OH
   6   434.000000     1.010000  # HN-NAA
   7   382.000000     1.448000  # CTA-NAA
   8   340.000000     1.090000  # CTA-H1
   9   268.000000     1.529000  # CT2-CTA
  10   340.000000     1.090000  # CT2-H1
  11   317.000000     1.522000  # CO2-CTA
  12   656.000000     1.250000  # CO2-O2
  13   500.000000     0.000000  # N4 DC-DP
  14   500.000000     0.000000  # C1 DC-DP
  15   500.000000     0.000000  # C1A DC-DP
  16   500.000000     0.000000  # COL DC-DP
  17   500.000000     0.000000  # OH DC-DP
  18   500.000000     0.000000  # NAL DC-DP
  19   500.000000     0.000000  # CAA DC-DP
  20   500.000000     0.000000  # CBA DC-DP
  21   500.000000     0.000000  # CO2A DC-DP
  22   500.000000     0.000000  # O2A DC-DP

Angle Coeffs

   1    51.804493   107.200000  # CT-NT-CT
   2    35.002390   109.500000  # HC-CT-NT
   3    32.994742   107.800000  # HC-CT-HC
   4    56.202199   109.500000  # NT-CT-CT
   5    37.500000   110.700000  # CT-CT-HC
   6    50.000000   109.500000  # CT-CT-OH
   7    35.002390   109.500000  # HC-CT-OH
   8    54.995220   108.500000  # CT-OH-HO
   9    43.600024   106.400000  # HN-NAA-HN
  10    35.000000   109.500000  # CTA-NAA-HN
  11    35.000000   109.500000  # H1-CTA-NAA
  12    56.200048   109.470000  # CT2-CTA-NAA
  13    80.000000   111.200000  # CO2-CTA-NAA
  14    37.500000   110.700000  # CT2-CTA-H1
  15    35.000000   109.500000  # CO2-CTA-H1
  16    63.000000   111.100000  # CO2-CTA-CT2
  17    37.500000   110.700000  # CTA-CT2-H1
  18    33.000000   107.800000  # H1-CT2-H1
  19    70.000000   117.000000  # CTA-CO2-O2
  20    80.000000   126.000000  # O2-CO2-O2

Dihedral Coeffs

   1     0.000000     0.000000     0.559990     0.000000  # HC-CT-NT-CT
   2     0.415989    -0.128011     0.695005     0.000000  # CT-NT-CT-CT
   3    -1.013002    -0.709011     0.472992     0.000000  # HC-CT-CT-NT
   4     0.000000     0.000000     0.300000     0.000000  # HC-CT-CT-HC
   5   -10.528561    -1.298972     0.000000     0.000000  # OH-CT-CT-NT
   6     0.000000     0.000000     0.467997     0.000000  # HC-CT-CT-OH
   7    -0.355999    -0.173996     0.491993     0.000000  # CT-CT-OH-HO
   8     0.000000     0.000000     0.450000     0.000000  # HC-CT-OH-HO
   9     0.000000     0.000000     0.400096     0.000000  # H1-CTA-NAA-HN
  10    -0.190010    -0.417065     0.418021     0.000000  # CT2-CTA-NAA-HN
  11    -0.190010    -0.417065     0.418021     0.000000  # CO2-CTA-NAA-HN
  12    -1.012906    -0.708891     0.472992     0.000000  # H1-CT2-CTA-NAA
  13     0.000000     0.000000     0.299952     0.000000  # H1-CTA-CT2-H1
  14     0.000000     0.000000    -0.099904     0.000000  # CO2-CTA-CT2-H1
  15     5.260038     0.820029     0.000000     0.000000  # NAA-CTA-CO2-O2
  16     0.000000     0.000000     0.000000     0.000000  # H1-CTA-CO2-O2
  17     0.000000     0.000000     0.000000     0.000000  # CT2-CTA-CO2-O2
  18     0.000000    21.000000     0.000000     0.000000  # CTA-O2-CO2-O2

Atoms

      1       1    1   2.027317  3.317833e+00  2.201209e+01  1.449836e+01  # N4 cholinium DC
      2       1    2   2.274948  3.511044e+00  2.056494e+01  1.423584e+01  # C1 cholinium DC
      3       1    2   2.274948  4.650864e+00  2.262918e+01  1.469838e+01  # C1 cholinium DC
      4       1    2   2.274948  2.515769e+00  2.215575e+01  1.573684e+01  # C1 cholinium DC
      5       1    3   0.130000  5.266684e+00  2.255966e+01  1.377403e+01  # H1 cholinium
      6       1    3   0.130000  5.206789e+00  2.212214e+01  1.551904e+01  # H1 cholinium
      7       1    3   0.130000  4.570307e+00  2.369801e+01  1.498790e+01  # H1 cholinium
      8       1    3   0.130000  4.122436e+00  2.040034e+01  1.331994e+01  # H1 cholinium
      9       1    3   0.130000  2.535240e+00  2.004839e+01  1.409176e+01  # H1 cholinium
     10       1    3   0.130000  4.033694e+00  2.006501e+01  1.508257e+01  # H1 cholinium
     11       1    3   0.130000  1.498727e+00  2.172290e+01  1.560735e+01  # H1 cholinium
     12       1    3   0.130000  2.409704e+00  2.321925e+01  1.603744e+01  # H1 cholinium
     13       1    3   0.130000  3.003349e+00  2.163436e+01  1.659129e+01  # H1 cholinium
     14       1    4   2.067200  2.612820e+00  2.260283e+01  1.331843e+01  # C1A cholinium DC
     15       1    3   0.130000  3.217662e+00  2.243281e+01  1.239770e+01  # H1 cholinium
     16       1    5   2.512200  2.320363e+00  2.411434e+01  1.340087e+01  # COL cholinium DC
     17       1    3   0.130000  1.637515e+00  2.208464e+01  1.316752e+01  # H1 cholinium
     18       1    6   0.060000  3.269559e+00  2.468405e+01  1.348601e+01  # HC cholinium
     19       1    6   0.060000  1.662918e+00  2.433118e+01  1.426884e+01  # HC cholinium
     20       1    7   1.418863  1.662333e+00  2.451231e+01  1.223010e+01  # OH cholinium DC
     21       1    8   0.418000  1.500125e+00  2.548744e+01  1.232040e+01  # HO cholinium
     22       2    1   2.027317  3.670100e+01  3.448231e+01  2.626961e+01  # N4 cholinium DC
     23       2    2   2.274948  3.536709e+01  3.506609e+01  2.598607e+01  # C1 cholinium DC
     24       2    2   2.274948  3.746721e+01  3.545216e+01  2.708820e+01  # C1 cholinium DC
     25       2    2   2.274948  3.739687e+01  3.426674e+01  2.497846e+01  # C1 cholinium DC
     26       2    3   0.130000  3.698130e+01  3.561362e+01  2.807629e+01  # H1 cholinium
     27       2    3   0.130000  3.753851e+01  3.643843e+01  2.657653e+01  # H1 cholinium
     28       2    3   0.130000  3.851000e+01  3.511209e+01  2.726033e+01  # H1 cholinium
     29       2    3   0.130000  3.480543e+01  3.526212e+01  2.692729e+01  # H1 cholinium
     30       2    3   0.130000  3.475305e+01  3.438083e+01  2.535906e+01  # H1 cholinium
     31       2    3   0.130000  3.545472e+01  3.603263e+01  2.544004e+01  # H1 cholinium
     32       2    3   0.130000  3.685647e+01  3.352236e+01  2.435207e+01  # H1 cholinium
     33       2    3   0.130000  3.843839e+01  3.391184e+01  2.512650e+01  # H1 cholinium
     34       2    3   0.130000  3.746689e+01  3.521500e+01  2.439918e+01  # H1 cholinium
     35       2    4   2.067200  3.649246e+01  3.319367e+01  2.700049e+01  # C1A cholinium DC
     36       2    3   0.130000  3.592298e+01  3.338424e+01  2.793957e+01  # H1 cholinium
     37       2    5   2.512200  3.777378e+01  3.242965e+01  2.738970e+01  # COL cholinium DC
     38       2    3   0.130000  3.587346e+01  3.250664e+01  2.637814e+01  # H1 cholinium
     39       2    6   0.060000  3.839816e+01  3.304907e+01  2.806738e+01  # HC cholinium
     40       2    6   0.060000  3.834882e+01  3.215638e+01  2.648015e+01  # HC cholinium
     41       2    7   1.418863  3.741337e+01  3.125461e+01  2.806160e+01  # OH cholinium DC
     42       2    8   0.418000  3.826260e+01  3.079902e+01  2.829948e+01  # HO cholinium
     43       3    1   2.027317  1.862698e+01  2.821684e+01  1.053639e+01  # N4 cholinium DC
     44       3    2   2.274948  1.826043e+01  2.774002e+01  1.189241e+01  # C1 cholinium DC
     45       3    2   2.274948  2.007172e+01  2.854924e+01  1.053645e+01  # C1 cholinium DC
     46       3    2   2.274948  1.783875e+01  2.943825e+01  1.024546e+01  # C1 cholinium DC
     47       3    3   0.130000  2.069053e+01  2.764395e+01  1.072628e+01  # H1 cholinium
     48       3    3   0.130000  2.030941e+01  2.929799e+01  1.132543e+01  # H1 cholinium
     49       3    3   0.130000  2.039087e+01  2.899769e+01  9.572218e+00  # H1 cholinium
     50       3    3   0.130000  1.883719e+01  2.682828e+01  1.216780e+01  # H1 cholinium
     51       3    3   0.130000  1.717725e+01  2.748901e+01  1.195147e+01  # H1 cholinium
     52       3    3   0.130000  1.846812e+01  2.851463e+01  1.266500e+01  # H1 cholinium
     53       3    3   0.130000  1.674930e+01  2.921334e+01  1.021397e+01  # H1 cholinium
     54       3    3   0.130000  1.813147e+01  2.989607e+01  9.277273e+00  # H1 cholinium
     55       3    3   0.130000  1.800523e+01  3.021614e+01  1.102446e+01  # H1 cholinium
     56       3    4   2.067200  1.831743e+01  2.712176e+01  9.565189e+00  # C1A cholinium DC
     57       3    3   0.130000  1.888650e+01  2.620422e+01  9.842254e+00  # H1 cholinium
     58       3    5   2.512200  1.863427e+01  2.742772e+01  8.087693e+00  # COL cholinium DC
     59       3    3   0.130000  1.723467e+01  2.686377e+01  9.625051e+00  # H1 cholinium
     60       3    6   0.060000  1.971914e+01  2.762794e+01  7.962111e+00  # HC cholinium
     61       3    6   0.060000  1.804005e+01  2.829882e+01  7.740247e+00  # HC cholinium
     62       3    7   1.418863  1.829144e+01  2.631334e+01  7.311352e+00  # OH cholinium DC
     63       3    8   0.418000  1.851679e+01  2.654816e+01  6.373583e+00  # HO cholinium
     64       4    1   2.027317  1.299892e+01  1.800358e+01  1.807804e+01  # N4 cholinium DC
     65       4    2   2.274948  1.407189e+01  1.869015e+01  1.883821e+01  # C1 cholinium DC
     66       4    2   2.274948  1.297133e+01  1.658158e+01  1.849629e+01  # C1 cholinium DC
     67       4    2   2.274948  1.332632e+01  1.808802e+01  1.663462e+01  # C1 cholinium DC
     68       4    3   0.130000  1.270140e+01  1.648602e+01  1.957170e+01  # H1 cholinium
     69       4    3   0.130000  1.396548e+01  1.610242e+01  1.834898e+01  # H1 cholinium
     70       4    3   0.130000  1.224662e+01  1.599058e+01  1.789779e+01  # H1 cholinium
     71       4    3   0.130000  1.388151e+01  1.864335e+01  1.993426e+01  # H1 cholinium
     72       4    3   0.130000  1.414532e+01  1.976327e+01  1.855045e+01  # H1 cholinium
     73       4    3   0.130000  1.506522e+01  1.822339e+01  1.864988e+01  # H1 cholinium
     74       4    3   0.130000  1.332924e+01  1.914493e+01  1.628616e+01  # H1 cholinium
     75       4    3   0.130000  1.260487e+01  1.751534e+01  1.601478e+01  # H1 cholinium
     76       4    3   0.130000  1.433147e+01  1.765646e+01  1.642705e+01  # H1 cholinium
     77       4    4   2.067200  1.170596e+01  1.868999e+01  1.838679e+01  # C1A cholinium DC
     78       4    3   0.130000  1.151558e+01  1.865283e+01  1.948445e+01  # H1 cholinium
     79       4    5   2.512200  1.045860e+01  1.811487e+01  1.768654e+01  # COL cholinium DC
     80       4    3   0.130000  1.177719e+01  1.976612e+01  1.810501e+01  # H1 cholinium
     81       4    6   0.060000  1.030395e+01  1.705731e+01  1.798729e+01  # HC cholinium
     82       4    6   0.060000  1.056910e+01  1.818864e+01  1.658428e+01  # HC cholinium
     83       4    7   1.418863  9.337817e+00  1.885976e+01  1.807519e+01  # OH cholinium DC
     84       4    8   0.418000  8.560038e+00  1.845434e+01  1.761040e+01  # HO cholinium
     85       5    1   2.027317  2.119729e+01  2.127443e+01  1.587794e+01  # N4 cholinium DC
     86       5    2   2.274948  2.139358e+01  2.204412e+01  1.462512e+01  # C1 cholinium DC
     87       5    2   2.274948  2.252874e+01  2.101333e+01  1.647528e+01  # C1 cholinium DC
     88       5    2   2.274948  2.054857e+01  1.998649e+01  1.553418e+01  # C1 cholinium DC
     89       5    3   0.130000  2.302903e+01  2.196326e+01  1.676830e+01  # H1 cholinium
     90       5    3   0.130000  2.319305e+01  2.048457e+01  1.575506e+01  # H1 cholinium
     91       5    3   0.130000  2.245707e+01  2.036236e+01  1.737183e+01  # H1 cholinium
     92       5    3   0.130000  2.189289e+01  2.301887e+01  1.482587e+01  # H1 cholinium
     93       5    3   0.130000  2.042084e+01  2.225568e+01  1.412632e+01  # H1 cholinium
     94       5    3   0.130000  2.202786e+01  2.148509e+01  1.390040e+01  # H1 cholinium
     95       5    3   0.130000  1.953458e+01  2.015092e+01  1.510605e+01  # H1 cholinium
     96       5    3   0.130000  2.045307e+01  1.932437e+01  1.642025e+01  # H1 cholinium
     97       5    3   0.130000  2.114954e+01  1.942407e+01  1.478439e+01  # H1 cholinium
     98       5    4   2.067200  2.033920e+01  2.209284e+01  1.679015e+01  # C1A cholinium DC
     99       5    3   0.130000  2.083157e+01  2.307330e+01  1.698705e+01  # H1 cholinium
    100       5    5   2.512200  2.002089e+01  2.145794e+01  1.815857e+01  # COL cholinium DC
    101       5    3   0.130000  1.936617e+01  2.231139e+01  1.629219e+01  # H1 cholinium
    102       5    6   0.060000  2.095870e+01  2.127991e+01  1.872567e+01  # HC cholinium
    103       5    6   0.060000  1.946872e+01  2.050474e+01  1.802019e+01  # HC cholinium
    104       5    7   1.418863  1.921541e+01  2.234002e+01  1.889015e+01  # OH cholinium DC
    105       5    8   0.418000  1.904083e+01  2.189865e+01  1.976196e+01  # HO cholinium
    106       6    1   2.027317  1.371252e+01  2.476410e+01  2.104474e+01  # N4 cholinium DC
    107       6    2   2.274948  1.477951e+01  2.451896e+01  2.204571e+01  # C1 cholinium DC
    108       6    2   2.274948  1.240246e+01  2.468209e+01  2.173380e+01  # C1 cholinium DC
    109       6    2   2.274948  1.379436e+01  2.370484e+01  2.001078e+01  # C1 cholinium DC
    110       6    3   0.130000  1.230202e+01  2.548387e+01  2.249902e+01  # H1 cholinium
    111       6    3   0.130000  1.228184e+01  2.370163e+01  2.224740e+01  # H1 cholinium
    112       6    3   0.130000  1.155613e+01  2.476860e+01  2.102041e+01  # H1 cholinium
    113       6    3   0.130000  1.475346e+01  2.528171e+01  2.285646e+01  # H1 cholinium
    114       6    3   0.130000  1.578821e+01  2.455539e+01  2.157564e+01  # H1 cholinium
    115       6    3   0.130000  1.466712e+01  2.351876e+01  2.252216e+01  # H1 cholinium
    116       6    3   0.130000  1.475922e+01  2.375820e+01  1.945879e+01  # H1 cholinium
    117       6    3   0.130000  1.296469e+01  2.378104e+01  1.927696e+01  # H1 cholinium
    118       6    3   0.130000  1.371754e+01  2.269286e+01  2.046865e+01  # H1 cholinium
    119       6    4   2.067200  1.393748e+01  2.612120e+01  2.045660e+01  # C1A cholinium DC
    120       6    3   0.130000  1.392059e+01  2.688718e+01  2.126622e+01  # H1 cholinium
    121       6    5   2.512200  1.291990e+01  2.656432e+01  1.938648e+01  # COL cholinium DC
    122       6    3   0.130000  1.494871e+01  2.616347e+01  1.998953e+01  # H1 cholinium
    123       6    6   0.060000  1.189902e+01  2.660287e+01  1.982136e+01  # HC cholinium
    124       6    6   0.060000  1.294347e+01  2.586731e+01  1.852262e+01  # HC cholinium
    125       6    7   1.418863  1.326447e+01  2.784568e+01  1.893765e+01  # OH cholinium DC
    126       6    8   0.418000  1.258399e+01  2.809469e+01  1.825922e+01  # HO cholinium
    127       7    1   2.027317  4.281308e+00  1.006236e+01  1.806754e+01  # N4 cholinium DC
    128       7    2   2.274948  3.196794e+00  9.316151e+00  1.875128e+01  # C1 cholinium DC
    129       7    2   2.274948  3.744499e+00  1.137847e+01  1.764625e+01  # C1 cholinium DC
    130       7    2   2.274948  4.692462e+00  9.290147e+00  1.687071e+01  # C1 cholinium DC
    131       7    3   0.130000  3.451819e+00  1.199185e+01  1.852750e+01  # H1 cholinium
    132       7    3   0.130000  2.845504e+00  1.125532e+01  1.700107e+01  # H1 cholinium
    133       7    3   0.130000  4.483487e+00  1.195200e+01  1.704820e+01  # H1 cholinium
    134       7    3   0.130000  2.839657e+00  9.862185e+00  1.965354e+01  # H1 cholinium
    135       7    3   0.130000  3.544388e+00  8.309797e+00  1.907717e+01  # H1 cholinium
    136       7    3   0.130000  2.320652e+00  9.167626e+00  1.808020e+01  # H1 cholinium
    137       7    3   0.130000  5.123747e+00  8.305454e+00  1.715859e+01  # H1 cholinium
    138       7    3   0.130000  5.443269e+00  9.839256e+00  1.626456e+01  # H1 cholinium
    139       7    3   0.130000  3.824261e+00  9.100552e+00  1.619993e+01  # H1 cholinium
    140       7    4   2.067200  5.412692e+00  1.021683e+01  1.903417e+01  # C1A cholinium DC
    141       7    3   0.130000  5.057297e+00  1.075573e+01  1.994289e+01  # H1 cholinium
    142       7    5   2.512200  6.646211e+00  1.097575e+01  1.850553e+01  # COL cholinium DC
    143       7    3   0.130000  5.760151e+00  9.211355e+00  1.936704e+01  # H1 cholinium
    144       7    6   0.060000  6.365547e+00  1.201149e+01  1.822046e+01  # HC cholinium
    145       7    6   0.060000  7.080953e+00  1.044194e+01  1.763451e+01  # HC cholinium
    146       7    7   1.418863  7.609675e+00  1.103581e+01  1.952052e+01  # OH cholinium DC
    147       7    8   0.418000  8.379766e+00  1.153580e+01  1.914329e+01  # HO cholinium
    148       8    1   2.027317  2.319806e+01  1.119291e+01  1.050249e+01  # N4 cholinium DC
    149       8    2   2.274948  2.283522e+01  1.263119e+01  1.048767e+01  # C1 cholinium DC
    150       8    2   2.274948  2.194687e+01  1.039857e+01  1.046619e+01  # C1 cholinium DC
    151       8    2   2.274948  2.392603e+01  1.091121e+01  1.176284e+01  # C1 cholinium DC
    152       8    3   0.130000  2.139147e+01  1.057007e+01  9.517179e+00  # H1 cholinium
    153       8    3   0.130000  2.127486e+01  1.067280e+01  1.131048e+01  # H1 cholinium
    154       8    3   0.130000  2.214689e+01  9.310957e+00  1.056515e+01  # H1 cholinium
    155       8    3   0.130000  2.227118e+01  1.289430e+01  9.564419e+00  # H1 cholinium
    156       8    3   0.130000  2.374246e+01  1.327542e+01  1.052817e+01  # H1 cholinium
    157       8    3   0.130000  2.219528e+01  1.289741e+01  1.135925e+01  # H1 cholinium
    158       8    3   0.130000  2.488403e+01  1.147587e+01  1.180636e+01  # H1 cholinium
    159       8    3   0.130000  2.414983e+01  9.829645e+00  1.187593e+01  # H1 cholinium
    160       8    3   0.130000  2.331744e+01  1.120096e+01  1.264903e+01  # H1 cholinium
    161       8    4   2.067200  2.405289e+01  1.092250e+01  9.304832e+00  # C1A cholinium DC
    162       8    3   0.130000  2.349494e+01  1.119258e+01  8.378418e+00  # H1 cholinium
    163       8    5   2.512200  2.453455e+01  9.467138e+00  9.140740e+00  # COL cholinium DC
    164       8    3   0.130000  2.495989e+01  1.156957e+01  9.338895e+00  # H1 cholinium
    165       8    6   0.060000  2.366459e+01  8.785332e+00  9.035378e+00  # HC cholinium
    166       8    6   0.060000  2.515424e+01  9.167518e+00  1.001186e+01  # HC cholinium
    167       8    7   1.418863  2.531704e+01  9.377470e+00  7.982405e+00  # OH cholinium DC
    168       8    8   0.418000  2.559907e+01  8.428461e+00  7.910485e+00  # HO cholinium
    169       9    1   2.027317  2.598822e+01  3.292584e+00  3.562690e+01  # N4 cholinium DC
    170       9    2   2.274948  2.724368e+01  2.617283e+00  3.603713e+01  # C1 cholinium DC
    171       9    2   2.274948  2.485108e+01  2.579950e+00  3.625685e+01  # C1 cholinium DC
    172       9    2   2.274948  2.587291e+01  3.200885e+00  3.415175e+01  # C1 cholinium DC
    173       9    3   0.130000  2.489709e+01  2.654917e+00  3.736625e+01  # H1 cholinium
    174       9    3   0.130000  2.485703e+01  1.499991e+00  3.598617e+01  # H1 cholinium
    175       9    3   0.130000  2.387387e+01  2.982961e+00  3.591723e+01  # H1 cholinium
    176       9    3   0.130000  2.737260e+01  2.644869e+00  3.714274e+01  # H1 cholinium
    177       9    3   0.130000  2.813226e+01  3.106552e+00  3.557797e+01  # H1 cholinium
    178       9    3   0.130000  2.725034e+01  1.548363e+00  3.572503e+01  # H1 cholinium
    179       9    3   0.130000  2.670133e+01  3.749736e+00  3.365076e+01  # H1 cholinium
    180       9    3   0.130000  2.490796e+01  3.612224e+00  3.378800e+01  # H1 cholinium
    181       9    3   0.130000  2.591073e+01  2.140877e+00  3.381320e+01  # H1 cholinium
    182       9    4   2.067200  2.606215e+01  4.715708e+00  3.608243e+01  # C1A cholinium DC
    183       9    3   0.130000  2.619973e+01  4.747823e+00  3.718811e+01  # H1 cholinium
    184       9    5   2.512200  2.483715e+01  5.590225e+00  3.574840e+01  # COL cholinium DC
    185       9    3   0.130000  2.695371e+01  5.207709e+00  3.562903e+01  # H1 cholinium
    186       9    6   0.060000  2.392803e+01  5.177604e+00  3.623424e+01  # HC cholinium
    187       9    6   0.060000  2.469363e+01  5.645688e+00  3.464887e+01  # HC cholinium
    188       9    7   1.418863  2.505830e+01  6.884199e+00  3.623707e+01  # OH cholinium DC
    189       9    8   0.418000  2.424765e+01  7.409642e+00  3.600880e+01  # HO cholinium
    190      10    1   2.027317  1.460533e+01  3.641980e+01  1.658827e+01  # N4 cholinium DC
    191      10    2   2.274948  1.531553e+01  3.524766e+01  1.715592e+01  # C1 cholinium DC
    192      10    2   2.274948  1.509342e+01  3.663241e+01  1.520467e+01  # C1 cholinium DC
    193      10    2   2.274948  1.493255e+01  3.760566e+01  1.741557e+01  # C1 cholinium DC
    194      10    3   0.130000  1.483767e+01  3.576741e+01  1.455285e+01  # H1 cholinium
    195      10    3   0.130000  1.619935e+01  3.675974e+01  1.518627e+01  # H1 cholinium
    196      10    3   0.130000  1.466438e+01  3.755176e+01  1.475366e+01  # H1 cholinium
    197      10    3   0.130000  1.511460e+01  3.432846e+01  1.656056e+01  # H1 cholinium
    198      10    3   0.130000  1.499490e+01  3.505184e+01  1.820408e+01  # H1 cholinium
    199      10    3   0.130000  1.641765e+01  3.540665e+01  1.716616e+01  # H1 cholinium
    200      10    3   0.130000  1.455490e+01  3.748466e+01  1.845540e+01  # H1 cholinium
    201      10    3   0.130000  1.450053e+01  3.853590e+01  1.699052e+01  # H1 cholinium
    202      10    3   0.130000  1.603325e+01  3.776506e+01  1.746762e+01  # H1 cholinium
    203      10    4   2.067200  1.313897e+01  3.612405e+01  1.661189e+01  # C1A cholinium DC
    204      10    3   0.130000  1.293438e+01  3.519947e+01  1.602384e+01  # H1 cholinium
    205      10    5   2.512200  1.222328e+01  3.723231e+01  1.605488e+01  # COL cholinium DC
    206      10    3   0.130000  1.281497e+01  3.592211e+01  1.765915e+01  # H1 cholinium
    207      10    6   0.060000  1.246229e+01  3.742650e+01  1.498813e+01  # HC cholinium
    208      10    6   0.060000  1.234032e+01  3.816206e+01  1.665027e+01  # HC cholinium
    209      10    7   1.418863  1.089174e+01  3.680704e+01  1.614554e+01  # OH cholinium DC
    210      10    8   0.418000  1.033927e+01  3.754225e+01  1.577194e+01  # HO cholinium
    211      11    1   2.027317  2.529795e+01  3.683311e+01  3.258198e+01  # N4 cholinium DC
    212      11    2   2.274948  2.389408e+01  3.715923e+01  3.223087e+01  # C1 cholinium DC
    213      11    2   2.274948  2.618298e+01  3.741915e+01  3.154706e+01  # C1 cholinium DC
    214      11    2   2.274948  2.544559e+01  3.535799e+01  3.258100e+01  # C1 cholinium DC
    215      11    3   0.130000  2.611277e+01  3.852981e+01  3.154285e+01  # H1 cholinium
    216      11    3   0.130000  2.590650e+01  3.705480e+01  3.053197e+01  # H1 cholinium
    217      11    3   0.130000  2.724454e+01  3.713433e+01  3.170410e+01  # H1 cholinium
    218      11    3   0.130000  2.373170e+01  3.826043e+01  3.220325e+01  # H1 cholinium
    219      11    3   0.130000  2.318352e+01  3.672832e+01  3.297195e+01  # H1 cholinium
    220      11    3   0.130000  2.362149e+01  3.675458e+01  3.122987e+01  # H1 cholinium
    221      11    3   0.130000  2.481030e+01  3.489176e+01  3.336685e+01  # H1 cholinium
    222      11    3   0.130000  2.649849e+01  3.504964e+01  3.275119e+01  # H1 cholinium
    223      11    3   0.130000  2.514637e+01  3.492720e+01  3.159889e+01  # H1 cholinium
    224      11    4   2.067200  2.557936e+01  3.741016e+01  3.393331e+01  # C1A cholinium DC
    225      11    3   0.130000  2.540981e+01  3.851166e+01  3.391232e+01  # H1 cholinium
    226      11    5   2.512200  2.700273e+01  3.717683e+01  3.447789e+01  # COL cholinium DC
    227      11    3   0.130000  2.486640e+01  3.698517e+01  3.467734e+01  # H1 cholinium
    228      11    6   0.060000  2.775201e+01  3.764141e+01  3.380296e+01  # HC cholinium
    229      11    6   0.060000  2.720061e+01  3.608924e+01  3.458102e+01  # HC cholinium
    230      11    7   1.418863  2.710709e+01  3.777284e+01  3.574121e+01  # OH cholinium DC
    231      11    8   0.418000  2.803540e+01  3.760657e+01  3.605095e+01  # HO cholinium
    232      12    1   2.027317  3.126631e+00  1.318851e+01  1.320694e+01  # N4 cholinium DC
    233      12    2   2.274948  2.610843e+00  1.392572e+01  1.438635e+01  # C1 cholinium DC
    234      12    2   2.274948  2.607782e+00  1.180095e+01  1.326403e+01  # C1 cholinium DC
    235      12    2   2.274948  4.606907e+00  1.316632e+01  1.328485e+01  # C1 cholinium DC
    236      12    3   0.130000  1.498144e+00  1.178499e+01  1.318066e+01  # H1 cholinium
    237      12    3   0.130000  2.886102e+00  1.130947e+01  1.422351e+01  # H1 cholinium
    238      12    3   0.130000  3.030539e+00  1.116987e+01  1.245427e+01  # H1 cholinium
    239      12    3   0.130000  1.497912e+00  1.395966e+01  1.438440e+01  # H1 cholinium
    240      12    3   0.130000  2.983902e+00  1.497473e+01  1.439982e+01  # H1 cholinium
    241      12    3   0.130000  2.930248e+00  1.344360e+01  1.533796e+01  # H1 cholinium
    242      12    3   0.130000  5.026527e+00  1.419494e+01  1.321873e+01  # H1 cholinium
    243      12    3   0.130000  5.052519e+00  1.255195e+01  1.247452e+01  # H1 cholinium
    244      12    3   0.130000  4.949775e+00  1.271788e+01  1.424454e+01  # H1 cholinium
    245      12    4   2.067200  2.654080e+00  1.389934e+01  1.197826e+01  # C1A cholinium DC
    246      12    3   0.130000  1.540267e+00  1.394302e+01  1.197650e+01  # H1 cholinium
    247      12    5   2.512200  3.089530e+00  1.327816e+01  1.063605e+01  # COL cholinium DC
    248      12    3   0.130000  3.021112e+00  1.495179e+01  1.199056e+01  # H1 cholinium
    249      12    6   0.060000  2.691088e+00  1.224585e+01  1.054457e+01  # HC cholinium
    250      12    6   0.060000  4.196996e+00  1.327088e+01  1.055795e+01  # HC cholinium
    251      12    7   1.418863  2.571830e+00  1.405266e+01  9.590010e+00  # OH cholinium DC
    252      12    8   0.418000  2.867635e+00  1.361659e+01  8.748775e+00  # HO cholinium
    253      13    1   2.027317  1.787275e+01  3.586254e+00  2.055527e+01  # N4 cholinium DC
    254      13    2   2.274948  1.693267e+01  4.592375e+00  2.000347e+01  # C1 cholinium DC
    255      13    2   2.274948  1.717499e+01  2.279288e+00  2.060773e+01  # C1 cholinium DC
    256      13    2   2.274948  1.824501e+01  4.003323e+00  2.192831e+01  # C1 cholinium DC
    257      13    3   0.130000  1.690653e+01  1.927804e+00  1.958651e+01  # H1 cholinium
    258      13    3   0.130000  1.623671e+01  2.350892e+00  2.120281e+01  # H1 cholinium
    259      13    3   0.130000  1.779715e+01  1.499931e+00  2.109581e+01  # H1 cholinium
    260      13    3   0.130000  1.660876e+01  4.318281e+00  1.897404e+01  # H1 cholinium
    261      13    3   0.130000  1.740424e+01  5.599899e+00  1.995558e+01  # H1 cholinium
    262      13    3   0.130000  1.601711e+01  4.679754e+00  2.063129e+01  # H1 cholinium
    263      13    3   0.130000  1.879394e+01  4.971340e+00  2.191746e+01  # H1 cholinium
    264      13    3   0.130000  1.888050e+01  3.244267e+00  2.243095e+01  # H1 cholinium
    265      13    3   0.130000  1.734132e+01  4.129495e+00  2.256634e+01  # H1 cholinium
    266      13    4   2.067200  1.906781e+01  3.532909e+00  1.965681e+01  # C1A cholinium DC
    267      13    3   0.130000  1.874691e+01  3.267013e+00  1.862297e+01  # H1 cholinium
    268      13    5   2.512200  2.016856e+01  2.533650e+00  2.006524e+01  # COL cholinium DC
    269      13    3   0.130000  1.953980e+01  4.541239e+00  1.960195e+01  # H1 cholinium
    270      13    6   0.060000  1.976424e+01  1.499591e+00  2.007089e+01  # HC cholinium
    271      13    6   0.060000  2.057107e+01  2.794294e+00  2.106658e+01  # HC cholinium
    272      13    7   1.418863  2.121075e+01  2.602209e+00  1.913185e+01  # OH cholinium DC
    273      13    8   0.418000  2.189110e+01  1.942019e+00  1.942615e+01  # HO cholinium
    274      14    1   2.027317  7.478066e+00  2.143865e+01  3.465691e+01  # N4 cholinium DC
    275      14    2   2.274948  8.037412e+00  2.280526e+01  3.451541e+01  # C1 cholinium DC
    276      14    2   2.274948  8.518268e+00  2.057202e+01  3.526081e+01  # C1 cholinium DC
    277      14    2   2.274948  7.138310e+00  2.093430e+01  3.330488e+01  # C1 cholinium DC
    278      14    3   0.130000  8.774595e+00  2.091182e+01  3.628907e+01  # H1 cholinium
    279      14    3   0.130000  9.451266e+00  2.058512e+01  3.465339e+01  # H1 cholinium
    280      14    3   0.130000  8.192071e+00  1.951196e+01  3.531166e+01  # H1 cholinium
    281      14    3   0.130000  8.324000e+00  2.322713e+01  3.550519e+01  # H1 cholinium
    282      14    3   0.130000  7.298108e+00  2.349651e+01  3.405132e+01  # H1 cholinium
    283      14    3   0.130000  8.947447e+00  2.280697e+01  3.387363e+01  # H1 cholinium
    284      14    3   0.130000  6.339929e+00  2.155201e+01  3.283635e+01  # H1 cholinium
    285      14    3   0.130000  6.795072e+00  1.987883e+01  3.333359e+01  # H1 cholinium